<?xml version="1.0" encoding="UTF-8"?>

<!-- generated on 04/02/19 12:12:45 by Eclipse SUMO GUI Version 1.1.0
<configuration xmlns:xsi="http://www.w3.org/2001/XMLSchema-instance" xsi:noNamespaceSchemaLocation="http://sumo.dlr.de/xsd/sumoConfiguration.xsd">

    <input>
        <net-file value="C:\Users\Lasse\Documents\GitHub\ProbabilistiskModellering\SUMOFiles\net.net.xml"/>
        <route-files value="C:\Users\Lasse\Documents\GitHub\ProbabilistiskModellering\SUMOFiles\routes.rou.xml"/>
        <additional-files value="C:\Users\Lasse\Documents\GitHub\ProbabilistiskModellering\SUMOFiles\cross.det.xml"/>
    </input>

    <time>
        <begin value="0"/>
        <end value="3000"/>
    </time>

    <gui_only>
        <gui-settings-file value="C:\Users\Lasse\Documents\GitHub\ProbabilistiskModellering\SUMOFiles\setting.settings.xml"/>
    </gui_only>

</configuration>
-->

<detector xmlns:xsi="http://www.w3.org/2001/XMLSchema-instance" xsi:noNamespaceSchemaLocation="http://sumo.dlr.de/xsd/det_e1_file.xsd">
    <interval begin="0.00" end="2798.00" id="det_1to0_0" nVehContrib="320" flow="411.72" occupancy="11.94" speed="13.30" length="5.00" nVehEntered="320"/>
    <interval begin="0.00" end="2798.00" id="det_1to0_1" nVehContrib="15" flow="19.30" occupancy="0.27" speed="20.00" length="10.00" nVehEntered="15"/>
    <interval begin="0.00" end="2798.00" id="det_2to0_0" nVehContrib="238" flow="306.22" occupancy="4.02" speed="15.49" length="5.17" nVehEntered="239"/>
    <interval begin="0.00" end="2798.00" id="det_2to0_1" nVehContrib="315" flow="405.29" occupancy="6.53" speed="13.91" length="5.03" nVehEntered="318"/>
    <interval begin="0.00" end="2798.00" id="det_2to0_2" nVehContrib="39" flow="50.18" occupancy="0.37" speed="19.06" length="5.00" nVehEntered="39"/>
    <interval begin="0.00" end="2798.00" id="det_3to0_0" nVehContrib="76" flow="97.78" occupancy="0.79" speed="17.54" length="5.00" nVehEntered="76"/>
    <interval begin="0.00" end="2798.00" id="det_3to0_1" nVehContrib="65" flow="83.63" occupancy="0.65" speed="18.15" length="5.00" nVehEntered="65"/>
    <interval begin="0.00" end="2798.00" id="det_4to0_0" nVehContrib="33" flow="42.46" occupancy="0.33" speed="17.75" length="5.00" nVehEntered="33"/>
    <interval begin="0.00" end="2798.00" id="det_4to0_1" nVehContrib="55" flow="70.76" occupancy="0.53" speed="18.61" length="5.00" nVehEntered="55"/>
</detector>
